created by fftool

11070 atoms
8070 bonds
6960 angles
5760 dihedrals
15 atom types
9 bond types
14 angle types
23 dihedral types
0.000000 75.000000 xlo xhi
0.000000 75.000000 ylo yhi
0.000000 75.000000 zlo zhi

Masses

   1   14.007  # NA
   2   12.011  # CR
   3   12.011  # CW
   4   12.011  # C1
   5    1.008  # HCR
   6   12.011  # C1A
   7    1.008  # HCW
   8    1.008  # H1
   9   12.011  # C2
  10   12.011  # CS
  11    1.008  # HC
  12   12.011  # CT
  13   35.453  # Cl
  14    1.008  # Hw
  15   15.999  # Ow

Bond Coeffs

   1   477.055449     1.315000  # CR-NA
   2   427.103250     1.378000  # CW-NA
   3   520.076482     1.341000  # CW-CW
   4   336.998088     1.466000  # NA-CT
   5   339.985660     1.080000  # CR-HA
   6   339.985660     1.080000  # CW-HA
   7   339.985660     1.090000  # HC-CT
   8   267.925430     1.529000  # CT-CT
   9   517.630258     1.000000  # Ow-Hw

Angle Coeffs

   1    70.004780   126.400000  # CR-NA-CT
   2    70.004780   108.000000  # CW-NA-CR
   3    70.004780   125.600000  # CW-NA-CT
   4    70.004780   109.800000  # NA-CR-NA
   5    35.002390   125.100000  # NA-CR-HA
   6    70.004780   107.100000  # NA-CW-CW
   7    35.002390   122.000000  # NA-CW-HA
   8    35.002390   130.900000  # CW-CW-HA
   9    37.500000   110.700000  # NA-CT-HC
  10    32.994742   107.800000  # HC-CT-HC
  11    58.353250   112.700000  # NA-CT-CT
  12    37.500000   110.700000  # CT-CT-HC
  13    58.353250   112.700000  # CT-CT-CT
  14    37.950526   109.470000  # Hw-Ow-Hw

Dihedral Coeffs

   1     0.000000     4.651052     0.000000     0.000000  # CT-NA-CR-NA
   2     0.000000     4.651052     0.000000     0.000000  # CW-NA-CR-NA
   3     0.000000     4.651052     0.000000     0.000000  # CT-NA-CR-HA
   4     0.000000     4.651052     0.000000     0.000000  # CW-NA-CR-HA
   5     0.000000     3.000000     0.000000     0.000000  # CR-NA-CW-CW
   6     0.000000     3.000000     0.000000     0.000000  # CT-NA-CW-CW
   7     0.000000     3.000000     0.000000     0.000000  # CR-NA-CW-HA
   8     0.000000     3.000000     0.000000     0.000000  # CT-NA-CW-HA
   9     0.000000    10.750478     0.000000     0.000000  # NA-CW-CW-HA
  10     0.000000    10.750478     0.000000     0.000000  # HA-CW-CW-HA
  11     0.000000    10.750478     0.000000     0.000000  # NA-CW-CW-NA
  12     0.000000     0.000000     0.000000     0.000000  # CR-NA-CT-HC
  13     0.000000     0.000000     0.124044     0.000000  # CW-NA-CT-HC
  14    -1.259345     0.000000     0.000000     0.000000  # CR-NA-CT-CT
  15    -1.709728     1.459465     0.189747     0.000000  # CW-NA-CT-CT
  16    -1.787691     0.756262    -0.287428     0.000000  # NA-CT-CT-CT
  17     0.000000     0.000000     0.300000     0.000000  # CT-CT-CT-HC
  18     0.000000     0.000000     0.087715     0.000000  # NA-CT-CT-HC
  19     0.000000     0.000000     0.300000     0.000000  # HC-CT-CT-HC
  20     1.300000    -0.050000     0.200000     0.000000  # CT-CT-CT-CT
  21     0.000000     2.000000     0.000000     0.000000  # CR-CW-NA-CT
  22     0.000000     2.200000     0.000000     0.000000  # NA-NA-CR-HA
  23     0.000000     2.200000     0.000000     0.000000  # NA-CW-CW-HA

Atoms

      1       1    1   0.150000  6.301895e+00  3.968504e+01  3.426759e+01  # NA c4c1im+
      2       1    2  -0.110000  6.081004e+00  4.008054e+01  3.303308e+01  # CR c4c1im+
      3       1    1   0.150000  5.157020e+00  3.932456e+01  3.248174e+01  # NA c4c1im+
      4       1    3  -0.130000  4.760260e+00  3.838958e+01  3.341302e+01  # CW c4c1im+
      5       1    3  -0.130000  5.473768e+00  3.861424e+01  3.452599e+01  # CW c4c1im+
      6       1    4  -0.170000  7.257773e+00  4.027188e+01  3.521155e+01  # C1 c4c1im+
      7       1    5   0.210000  6.583126e+00  4.090287e+01  3.254519e+01  # HCR c4c1im+
      8       1    6  -0.170000  4.635143e+00  3.944783e+01  3.111733e+01  # C1A c4c1im+
      9       1    7   0.210000  4.014962e+00  3.762062e+01  3.327292e+01  # HCW c4c1im+
     10       1    7   0.210000  5.411277e+00  3.806026e+01  3.545099e+01  # HCW c4c1im+
     11       1    8   0.130000  7.984824e+00  3.951660e+01  3.550995e+01  # H1 c4c1im+
     12       1    8   0.130000  7.774731e+00  4.110494e+01  3.473524e+01  # H1 c4c1im+
     13       1    8   0.130000  6.725490e+00  4.063107e+01  3.609232e+01  # H1 c4c1im+
     14       1    9   0.010000  5.333151e+00  4.060788e+01  3.040676e+01  # C2 c4c1im+
     15       1    8   0.130000  4.821722e+00  3.852300e+01  3.057147e+01  # H1 c4c1im+
     16       1    8   0.130000  3.562388e+00  3.963747e+01  3.115385e+01  # H1 c4c1im+
     17       1   10  -0.120000  4.788847e+00  4.073645e+01  2.898372e+01  # CS c4c1im+
     18       1   11   0.060000  5.146650e+00  4.153337e+01  3.095154e+01  # HC c4c1im+
     19       1   11   0.060000  6.405984e+00  4.041889e+01  3.036916e+01  # HC c4c1im+
     20       1   12  -0.180000  5.486855e+00  4.189650e+01  2.827315e+01  # CT c4c1im+
     21       1   11   0.060000  3.716091e+00  4.092609e+01  2.902023e+01  # HC c4c1im+
     22       1   11   0.060000  4.975426e+00  3.981161e+01  2.843786e+01  # HC c4c1im+
     23       1   11   0.060000  5.098829e+00  4.198815e+01  2.725869e+01  # HC c4c1im+
     24       1   11   0.060000  6.559688e+00  4.170751e+01  2.823555e+01  # HC c4c1im+
     25       1   11   0.060000  5.300354e+00  4.282199e+01  2.881793e+01  # HC c4c1im+
     26       2    1   0.150000  3.251322e+01  2.558135e+01  1.010874e+01  # NA c4c1im+
     27       2    2  -0.110000  3.189138e+01  2.445275e+01  1.037104e+01  # CR c4c1im+
     28       2    1   0.150000  3.065184e+01  2.451573e+01  9.936540e+00  # NA c4c1im+
     29       2    3  -0.130000  3.046438e+01  2.575418e+01  9.362098e+00  # CW c4c1im+
     30       2    3  -0.130000  3.162442e+01  2.641829e+01  9.469418e+00  # CW c4c1im+
     31       2    4  -0.170000  3.390584e+01  2.590366e+01  1.043419e+01  # C1 c4c1im+
     32       2    5   0.210000  3.233252e+01  2.360177e+01  1.086867e+01  # HCR c4c1im+
     33       2    6  -0.170000  2.964089e+01  2.345919e+01  1.004080e+01  # C1A c4c1im+
     34       2    7   0.210000  2.955447e+01  2.612092e+01  8.910467e+00  # HCW c4c1im+
     35       2    7   0.210000  3.182465e+01  2.742057e+01  9.120489e+00  # HCW c4c1im+
     36       2    8   0.130000  3.393421e+01  2.677382e+01  1.109001e+01  # H1 c4c1im+
     37       2    8   0.130000  3.436768e+01  2.505449e+01  1.093789e+01  # H1 c4c1im+
     38       2    8   0.130000  3.445252e+01  2.612264e+01  9.516975e+00  # H1 c4c1im+
     39       2    9   0.010000  3.024457e+01  2.224268e+01  1.074330e+01  # C2 c4c1im+
     40       2    8   0.130000  2.879019e+01  2.382506e+01  1.061573e+01  # H1 c4c1im+
     41       2    8   0.130000  2.930851e+01  2.317388e+01  9.042689e+00  # H1 c4c1im+
     42       2   10  -0.120000  2.919018e+01  2.114074e+01  1.085204e+01  # CS c4c1im+
     43       2   11   0.060000  3.109505e+01  2.187564e+01  1.016878e+01  # HC c4c1im+
     44       2   11   0.060000  3.057673e+01  2.252682e+01  1.174182e+01  # HC c4c1im+
     45       2   12  -0.180000  2.979386e+01  1.992423e+01  1.155454e+01  # CT c4c1im+
     46       2   11   0.060000  2.885779e+01  2.085543e+01  9.853929e+00  # HC c4c1im+
     47       2   11   0.060000  2.833948e+01  2.150661e+01  1.142697e+01  # HC c4c1im+
     48       2   11   0.060000  2.904220e+01  1.913868e+01  1.163206e+01  # HC c4c1im+
     49       2   11   0.060000  3.012602e+01  2.020837e+01  1.255306e+01  # HC c4c1im+
     50       2   11   0.060000  3.064434e+01  1.955719e+01  1.098002e+01  # HC c4c1im+
     51       3    1   0.150000  2.032706e+01  2.629632e+01  5.697168e+01  # NA c4c1im+
     52       3    2  -0.110000  1.910019e+01  2.618714e+01  5.743221e+01  # CR c4c1im+
     53       3    1   0.150000  1.854403e+01  2.509188e+01  5.696283e+01  # NA c4c1im+
     54       3    3  -0.130000  1.946393e+01  2.445987e+01  5.615461e+01  # CW c4c1im+
     55       3    3  -0.130000  2.057515e+01  2.521050e+01  5.616012e+01  # CW c4c1im+
     56       3    4  -0.170000  2.127303e+01  2.737766e+01  5.726322e+01  # C1 c4c1im+
     57       3    5   0.210000  1.862120e+01  2.689137e+01  5.809632e+01  # HCR c4c1im+
     58       3    6  -0.170000  1.718529e+01  2.461905e+01  5.724465e+01  # C1A c4c1im+
     59       3    7   0.210000  1.931752e+01  2.353425e+01  5.561778e+01  # HCW c4c1im+
     60       3    7   0.210000  2.149215e+01  2.500320e+01  5.562857e+01  # HCW c4c1im+
     61       3    8   0.130000  2.155500e+01  2.787455e+01  5.633494e+01  # H1 c4c1im+
     62       3    8   0.130000  2.080567e+01  2.809909e+01  5.793345e+01  # H1 c4c1im+
     63       3    8   0.130000  2.216277e+01  2.696449e+01  5.773835e+01  # H1 c4c1im+
     64       3    9   0.010000  1.648734e+01  2.560248e+01  5.818464e+01  # C2 c4c1im+
     65       3    8   0.130000  1.662434e+01  2.454751e+01  5.631282e+01  # H1 c4c1im+
     66       3    8   0.130000  1.723212e+01  2.363745e+01  5.771622e+01  # H1 c4c1im+
     67       3   10  -0.120000  1.507022e+01  2.510932e+01  5.847857e+01  # CS c4c1im+
     68       3   11   0.060000  1.704722e+01  2.567426e+01  5.911710e+01  # HC c4c1im+
     69       3   11   0.060000  1.643944e+01  2.658432e+01  5.771369e+01  # HC c4c1im+
     70       3   12  -0.180000  1.437227e+01  2.609276e+01  5.941855e+01  # CT c4c1im+
     71       3   11   0.060000  1.511704e+01  2.412773e+01  5.895013e+01  # HC c4c1im+
     72       3   11   0.060000  1.450926e+01  2.503779e+01  5.754673e+01  # HC c4c1im+
     73       3   11   0.060000  1.336202e+01  2.574119e+01  5.962809e+01  # HC c4c1im+
     74       3   11   0.060000  1.432437e+01  2.707460e+01  5.894761e+01  # HC c4c1im+
     75       3   11   0.060000  1.493215e+01  2.616454e+01  6.035101e+01  # HC c4c1im+
     76       4    1   0.150000  7.173799e+01  1.167393e+01  1.521756e+01  # NA c4c1im+
     77       4    2  -0.110000  7.087882e+01  1.236470e+01  1.593441e+01  # CR c4c1im+
     78       4    1   0.150000  7.117067e+01  1.225035e+01  1.721151e+01  # NA c4c1im+
     79       4    3  -0.130000  7.227997e+01  1.144060e+01  1.732397e+01  # CW c4c1im+
     80       4    3  -0.130000  7.263354e+01  1.108137e+01  1.608130e+01  # CW c4c1im+
     81       4    4  -0.170000  7.175079e+01  1.154894e+01  1.375695e+01  # C1 c4c1im+
     82       4    5   0.210000  7.005680e+01  1.293969e+01  1.553431e+01  # HCR c4c1im+
     83       4    6  -0.170000  7.044844e+01  1.287151e+01  1.832583e+01  # C1A c4c1im+
     84       4    7   0.210000  7.277200e+01  1.114999e+01  1.824040e+01  # HCW c4c1im+
     85       4    7   0.210000  7.346392e+01  1.044698e+01  1.580853e+01  # HCW c4c1im+
     86       4    8   0.130000  7.164045e+01  1.050037e+01  1.348052e+01  # H1 c4c1im+
     87       4    8   0.130000  7.092637e+01  1.212399e+01  1.333533e+01  # H1 c4c1im+
     88       4    8   0.130000  7.269506e+01  1.192941e+01  1.336747e+01  # H1 c4c1im+
     89       4    9   0.010000  6.927848e+01  1.369187e+01  1.778171e+01  # C2 c4c1im+
     90       4    8   0.130000  7.006927e+01  1.209582e+01  1.899115e+01  # H1 c4c1im+
     91       4    8   0.130000  7.112388e+01  1.352486e+01  1.887809e+01  # H1 c4c1im+
     92       4   10  -0.120000  6.852521e+01  1.433971e+01  1.894392e+01  # CS c4c1im+
     93       4   11   0.060000  6.965667e+01  1.446829e+01  1.711671e+01  # HC c4c1im+
     94       4   11   0.060000  6.860206e+01  1.303925e+01  1.722976e+01  # HC c4c1im+
     95       4   12  -0.180000  6.735526e+01  1.516007e+01  1.839980e+01  # CT c4c1im+
     96       4   11   0.060000  6.920066e+01  1.499307e+01  1.949618e+01  # HC c4c1im+
     97       4   11   0.060000  6.814605e+01  1.356403e+01  1.960924e+01  # HC c4c1im+
     98       4   11   0.060000  6.681826e+01  1.562191e+01  1.922832e+01  # HC c4c1im+
     99       4   11   0.060000  6.667884e+01  1.450746e+01  1.784785e+01  # HC c4c1im+
    100       4   11   0.060000  6.773345e+01  1.593650e+01  1.773479e+01  # HC c4c1im+
    101       5    1   0.150000  5.849198e+01  3.158239e+01  5.730070e+01  # NA c4c1im+
    102       5    2  -0.110000  5.835625e+01  3.275895e+01  5.787212e+01  # CR c4c1im+
    103       5    1   0.150000  5.933501e+01  3.295383e+01  5.872843e+01  # NA c4c1im+
    104       5    3  -0.130000  6.014690e+01  3.184059e+01  5.870771e+01  # CW c4c1im+
    105       5    3  -0.130000  5.962151e+01  3.098589e+01  5.781792e+01  # CW c4c1im+
    106       5    4  -0.170000  5.760469e+01  3.099797e+01  5.629059e+01  # C1 c4c1im+
    107       5    5   0.210000  5.756034e+01  3.346003e+01  5.766865e+01  # HCR c4c1im+
    108       5    6  -0.170000  5.953478e+01  3.414293e+01  5.956226e+01  # C1A c4c1im+
    109       5    7   0.210000  6.103852e+01  3.168563e+01  5.929713e+01  # HCW c4c1im+
    110       5    7   0.210000  6.001033e+01  3.001300e+01  5.755584e+01  # HCW c4c1im+
    111       5    8   0.130000  5.718960e+01  3.006338e+01  5.666787e+01  # H1 c4c1im+
    112       5    8   0.130000  5.679396e+01  3.169313e+01  5.607247e+01  # H1 c4c1im+
    113       5    8   0.130000  5.816984e+01  3.080225e+01  5.537933e+01  # H1 c4c1im+
    114       5    9   0.010000  5.841752e+01  3.515067e+01  5.929018e+01  # C2 c4c1im+
    115       5    8   0.130000  5.951728e+01  3.385699e+01  6.061394e+01  # H1 c4c1im+
    116       5    8   0.130000  6.049751e+01  3.459586e+01  5.932540e+01  # H1 c4c1im+
    117       5   10  -0.120000  5.862587e+01  3.639088e+01  6.015984e+01  # CS c4c1im+
    118       5   11   0.060000  5.843456e+01  3.543775e+01  5.823880e+01  # HC c4c1im+
    119       5   11   0.060000  5.745433e+01  3.469888e+01  5.952734e+01  # HC c4c1im+
    120       5   12  -0.180000  5.750861e+01  3.739861e+01  5.988775e+01  # CT c4c1im+
    121       5   11   0.060000  5.958860e+01  3.684381e+01  5.992297e+01  # HC c4c1im+
    122       5   11   0.060000  5.860837e+01  3.610493e+01  6.121152e+01  # HC c4c1im+
    123       5   11   0.060000  5.765714e+01  3.828273e+01  6.050772e+01  # HC c4c1im+
    124       5   11   0.060000  5.654542e+01  3.694682e+01  6.012492e+01  # HC c4c1im+
    125       5   11   0.060000  5.752565e+01  3.768569e+01  5.883638e+01  # HC c4c1im+
    126       6    1   0.150000  6.440109e+01  6.730223e+01  2.525849e+01  # NA c4c1im+
    127       6    2  -0.110000  6.568944e+01  6.752474e+01  2.539946e+01  # CR c4c1im+
    128       6    1   0.150000  6.631855e+01  6.638755e+01  2.560008e+01  # NA c4c1im+
    129       6    3  -0.130000  6.538333e+01  6.537558e+01  2.558769e+01  # CW c4c1im+
    130       6    3  -0.130000  6.418833e+01  6.594562e+01  2.537481e+01  # CW c4c1im+
    131       6    4  -0.170000  6.336474e+01  6.831118e+01  2.501943e+01  # C1 c4c1im+
    132       6    5   0.210000  6.616024e+01  6.849579e+01  2.535687e+01  # HCR c4c1im+
    133       6    6  -0.170000  6.776054e+01  6.621734e+01  2.580221e+01  # C1A c4c1im+
    134       6    7   0.210000  6.557641e+01  6.432174e+01  2.572382e+01  # HCW c4c1im+
    135       6    7   0.210000  6.323784e+01  6.543729e+01  2.530721e+01  # HCW c4c1im+
    136       6    8   0.130000  6.263788e+01  6.828561e+01  2.583130e+01  # H1 c4c1im+
    137       6    8   0.130000  6.382264e+01  6.929927e+01  2.497339e+01  # H1 c4c1im+
    138       6    8   0.130000  6.286207e+01  6.809991e+01  2.407562e+01  # H1 c4c1im+
    139       6    9   0.010000  6.844839e+01  6.758171e+01  2.574573e+01  # C2 c4c1im+
    140       6    8   0.130000  6.794010e+01  6.576051e+01  2.677543e+01  # H1 c4c1im+
    141       6    8   0.130000  6.816429e+01  6.557481e+01  2.501975e+01  # H1 c4c1im+
    142       6   10  -0.120000  6.995235e+01  6.740419e+01  2.595655e+01  # CS c4c1im+
    143       6   11   0.060000  6.826994e+01  6.803915e+01  2.477259e+01  # HC c4c1im+
    144       6   11   0.060000  6.804575e+01  6.822485e+01  2.652826e+01  # HC c4c1im+
    145       6   12  -0.180000  7.064020e+01  6.876856e+01  2.590007e+01  # CT c4c1im+
    146       6   11   0.060000  7.035609e+01  6.676166e+01  2.517409e+01  # HC c4c1im+
    147       6   11   0.060000  7.013191e+01  6.694736e+01  2.692977e+01  # HC c4c1im+
    148       6   11   0.060000  7.171234e+01  6.864201e+01  2.605036e+01  # HC c4c1im+
    149       6   11   0.060000  7.023756e+01  6.941170e+01  2.668260e+01  # HC c4c1im+
    150       6   11   0.060000  7.046175e+01  6.922600e+01  2.492693e+01  # HC c4c1im+
    151       7    1   0.150000  6.350813e+01  7.174494e+01  3.452338e+01  # NA c4c1im+
    152       7    2  -0.110000  6.220204e+01  7.184540e+01  3.440821e+01  # CR c4c1im+
    153       7    1   0.150000  6.173427e+01  7.081924e+01  3.373189e+01  # NA c4c1im+
    154       7    3  -0.130000  6.279842e+01  7.001234e+01  3.339220e+01  # CW c4c1im+
    155       7    3  -0.130000  6.390393e+01  7.058926e+01  3.388547e+01  # CW c4c1im+
    156       7    4  -0.170000  6.439665e+01  7.268937e+01  3.520729e+01  # C1 c4c1im+
    157       7    5   0.210000  6.160334e+01  7.264998e+01  3.480897e+01  # HCR c4c1im+
    158       7    6  -0.170000  6.032964e+01  7.056984e+01  3.339431e+01  # C1A c4c1im+
    159       7    7   0.210000  6.275103e+01  6.908911e+01  3.283382e+01  # HCW c4c1im+
    160       7    7   0.210000  6.491447e+01  7.021811e+01  3.379914e+01  # HCW c4c1im+
    161       7    8   0.130000  6.512335e+01  7.308452e+01  3.449745e+01  # H1 c4c1im+
    162       7    8   0.130000  6.380841e+01  7.350959e+01  3.561879e+01  # H1 c4c1im+
    163       7    8   0.130000  6.491976e+01  7.217723e+01  3.601485e+01  # H1 c4c1im+
    164       7    9   0.010000  5.946234e+01  7.169845e+01  3.395278e+01  # C2 c4c1im+
    165       7    8   0.130000  6.021764e+01  7.052835e+01  3.231088e+01  # H1 c4c1im+
    166       7    8   0.130000  6.001405e+01  6.962106e+01  3.382828e+01  # H1 c4c1im+
    167       7   10  -0.120000  5.799735e+01  7.143834e+01  3.360070e+01  # CS c4c1im+
    168       7   11   0.060000  5.957316e+01  7.174038e+01  3.503632e+01  # HC c4c1im+
    169       7   11   0.060000  5.977674e+01  7.264767e+01  3.351891e+01  # HC c4c1im+
    170       7   12  -0.180000  5.713005e+01  7.256695e+01  3.415916e+01  # CT c4c1im+
    171       7   11   0.060000  5.768176e+01  7.048956e+01  3.403466e+01  # HC c4c1im+
    172       7   11   0.060000  5.788535e+01  7.139685e+01  3.251726e+01  # HC c4c1im+
    173       7   11   0.060000  5.608568e+01  7.238152e+01  3.390816e+01  # HC c4c1im+
    174       7   11   0.060000  5.744445e+01  7.351617e+01  3.372529e+01  # HC c4c1im+
    175       7   11   0.060000  5.724087e+01  7.260888e+01  3.524270e+01  # HC c4c1im+
    176       8    1   0.150000  4.155123e+01  1.535594e+01  2.251833e+01  # NA c4c1im+
    177       8    2  -0.110000  4.171542e+01  1.407739e+01  2.225834e+01  # CR c4c1im+
    178       8    1   0.150000  4.072328e+01  1.364356e+01  2.151222e+01  # NA c4c1im+
    179       8    3  -0.130000  3.987212e+01  1.470171e+01  2.127829e+01  # CW c4c1im+
    180       8    3  -0.130000  4.038810e+01  1.576889e+01  2.190531e+01  # CW c4c1im+
    181       8    4  -0.170000  4.244163e+01  1.620276e+01  2.331785e+01  # C1 c4c1im+
    182       8    5   0.210000  4.254121e+01  1.347413e+01  2.260552e+01  # HCR c4c1im+
    183       8    6  -0.170000  4.054620e+01  1.227665e+01  2.101287e+01  # C1A c4c1im+
    184       8    7   0.210000  3.896097e+01  1.467632e+01  2.069900e+01  # HCW c4c1im+
    185       8    7   0.210000  3.997075e+01  1.676477e+01  2.192607e+01  # HCW c4c1im+
    186       8    8   0.130000  4.189270e+01  1.660665e+01  2.416853e+01  # H1 c4c1im+
    187       8    8   0.130000  4.328236e+01  1.560936e+01  2.367721e+01  # H1 c4c1im+
    188       8    8   0.130000  4.281278e+01  1.702279e+01  2.270312e+01  # H1 c4c1im+
    189       8    9   0.010000  4.170593e+01  1.140358e+01  2.149309e+01  # C2 c4c1im+
    190       8    8   0.130000  3.960685e+01  1.187090e+01  2.138850e+01  # H1 c4c1im+
    191       8    8   0.130000  4.052693e+01  1.228704e+01  1.992309e+01  # H1 c4c1im+
    192       8   10  -0.120000  4.152123e+01  9.977931e+00  2.097228e+01  # CS c4c1im+
    193       8   11   0.060000  4.264576e+01  1.180817e+01  2.111744e+01  # HC c4c1im+
    194       8   11   0.060000  4.172568e+01  1.139203e+01  2.258285e+01  # HC c4c1im+
    195       8   12  -0.180000  4.268096e+01  9.104860e+00  2.145250e+01  # CT c4c1im+
    196       8   11   0.060000  4.150196e+01  9.988315e+00  1.988250e+01  # HC c4c1im+
    197       8   11   0.060000  4.058188e+01  9.572178e+00  2.134791e+01  # HC c4c1im+
    198       8   11   0.060000  4.254929e+01  8.088536e+00  2.108122e+01  # HC c4c1im+
    199       8   11   0.060000  4.270072e+01  9.093313e+00  2.254226e+01  # HC c4c1im+
    200       8   11   0.060000  4.362080e+01  9.509450e+00  2.107685e+01  # HC c4c1im+
    201       9    1   0.150000  1.821511e+01  2.239225e+01  1.113995e+01  # NA c4c1im+
    202       9    2  -0.110000  1.758731e+01  2.222439e+01  9.996745e+00  # CR c4c1im+
    203       9    1   0.150000  1.781631e+01  2.325123e+01  9.207834e+00  # NA c4c1im+
    204       9    3  -0.130000  1.863762e+01  2.412998e+01  9.880230e+00  # CW c4c1im+
    205       9    3  -0.130000  1.888616e+01  2.359465e+01  1.108436e+01  # CW c4c1im+
    206       9    4  -0.170000  1.820944e+01  2.147000e+01  1.227950e+01  # C1 c4c1im+
    207       9    5   0.210000  1.697541e+01  2.137118e+01  9.743723e+00  # HCR c4c1im+
    208       9    6  -0.170000  1.729387e+01  2.343649e+01  7.850671e+00  # C1A c4c1im+
    209       9    7   0.210000  1.901089e+01  2.507243e+01  9.507595e+00  # HCW c4c1im+
    210       9    7   0.210000  1.949728e+01  2.402480e+01  1.186404e+01  # HCW c4c1im+
    211       9    8   0.130000  1.779984e+01  2.197504e+01  1.315429e+01  # H1 c4c1im+
    212       9    8   0.130000  1.759556e+01  2.060132e+01  1.204150e+01  # H1 c4c1im+
    213       9    8   0.130000  1.922872e+01  2.114694e+01  1.249119e+01  # H1 c4c1im+
    214       9    9   0.010000  1.642324e+01  2.223831e+01  7.470937e+00  # C2 c4c1im+
    215       9    8   0.130000  1.669526e+01  2.434660e+01  7.812315e+00  # H1 c4c1im+
    216       9    8   0.130000  1.812413e+01  2.351849e+01  7.149224e+00  # H1 c4c1im+
    217       9   10  -0.120000  1.587835e+01  2.243153e+01  6.055453e+00  # CS c4c1im+
    218       9   11   0.060000  1.702113e+01  2.132769e+01  7.508385e+00  # HC c4c1im+
    219       9   11   0.060000  1.559225e+01  2.215579e+01  8.171476e+00  # HC c4c1im+
    220       9   12  -0.180000  1.500772e+01  2.123334e+01  5.675718e+00  # CT c4c1im+
    221       9   11   0.060000  1.670862e+01  2.251353e+01  5.354005e+00  # HC c4c1im+
    222       9   11   0.060000  1.527974e+01  2.334164e+01  6.017096e+00  # HC c4c1im+
    223       9   11   0.060000  1.461927e+01  2.137109e+01  4.666642e+00  # HC c4c1im+
    224       9   11   0.060000  1.417673e+01  2.115083e+01  6.376257e+00  # HC c4c1im+
    225       9   11   0.060000  1.560561e+01  2.032273e+01  5.713167e+00  # HC c4c1im+
    226      10    1   0.150000  4.100268e+01  5.388099e+01  5.267271e+01  # NA c4c1im+
    227      10    2  -0.110000  4.048440e+01  5.351639e+01  5.382496e+01  # CR c4c1im+
    228      10    1   0.150000  3.997813e+01  5.456430e+01  5.443718e+01  # NA c4c1im+
    229      10    3  -0.130000  4.018151e+01  5.566582e+01  5.363458e+01  # CW c4c1im+
    230      10    3  -0.130000  4.082002e+01  5.523997e+01  5.253493e+01  # CW c4c1im+
    231      10    4  -0.170000  4.166101e+01  5.300531e+01  5.169858e+01  # C1 c4c1im+
    232      10    5   0.210000  4.047583e+01  5.250764e+01  5.421064e+01  # HCR c4c1im+
    233      10    6  -0.170000  3.931284e+01  5.456878e+01  5.574352e+01  # C1A c4c1im+
    234      10    7   0.210000  3.988288e+01  5.668100e+01  5.385052e+01  # HCW c4c1im+
    235      10    7   0.210000  4.113244e+01  5.584762e+01  5.169854e+01  # HCW c4c1im+
    236      10    8   0.130000  4.268827e+01  5.333684e+01  5.154722e+01  # H1 c4c1im+
    237      10    8   0.130000  4.166155e+01  5.198125e+01  5.207194e+01  # H1 c4c1im+
    238      10    8   0.130000  4.112338e+01  5.304582e+01  5.075126e+01  # H1 c4c1im+
    239      10    9   0.010000  3.928927e+01  5.314845e+01  5.630916e+01  # C2 c4c1im+
    240      10    8   0.130000  3.985601e+01  5.522222e+01  5.642622e+01  # H1 c4c1im+
    241      10    8   0.130000  3.829111e+01  5.493120e+01  5.563026e+01  # H1 c4c1im+
    242      10   10  -0.120000  3.859540e+01  5.315312e+01  5.767164e+01  # CS c4c1im+
    243      10   11   0.060000  3.874574e+01  5.249428e+01  5.562744e+01  # HC c4c1im+
    244      10   11   0.060000  4.031064e+01  5.278531e+01  5.642340e+01  # HC c4c1im+
    245      10   12  -0.180000  3.857183e+01  5.173279e+01  5.823728e+01  # CT c4c1im+
    246      10   11   0.060000  3.757367e+01  5.351554e+01  5.755838e+01  # HC c4c1im+
    247      10   11   0.060000  3.913856e+01  5.380657e+01  5.835434e+01  # HC c4c1im+
    248      10   11   0.060000  3.807718e+01  5.173612e+01  5.920857e+01  # HC c4c1im+
    249      10   11   0.060000  3.959320e+01  5.136965e+01  5.835152e+01  # HC c4c1im+
    250      10   11   0.060000  3.802830e+01  5.107863e+01  5.755556e+01  # HC c4c1im+
    251      11    1   0.150000  1.661590e+01  2.604270e+01  3.174145e+01  # NA c4c1im+
    252      11    2  -0.110000  1.641522e+01  2.734039e+01  3.167104e+01  # CR c4c1im+
    253      11    1   0.150000  1.522254e+01  2.763284e+01  3.214135e+01  # NA c4c1im+
    254      11    3  -0.130000  1.462095e+01  2.645792e+01  3.253698e+01  # CW c4c1im+
    255      11    3  -0.130000  1.548932e+01  2.546691e+01  3.228775e+01  # CW c4c1im+
    256      11    4  -0.170000  1.782115e+01  2.532419e+01  3.131684e+01  # C1 c4c1im+
    257      11    5   0.210000  1.712367e+01  2.805829e+01  3.128488e+01  # HCR c4c1im+
    258      11    6  -0.170000  1.462953e+01  2.897046e+01  3.223239e+01  # C1A c4c1im+
    259      11    7   0.210000  1.363558e+01  2.635464e+01  3.296685e+01  # HCW c4c1im+
    260      11    7   0.210000  1.533496e+01  2.441527e+01  3.247912e+01  # HCW c4c1im+
    261      11    8   0.130000  1.756110e+01  2.460407e+01  3.054102e+01  # H1 c4c1im+
    262      11    8   0.130000  1.854854e+01  2.603437e+01  3.092358e+01  # H1 c4c1im+
    263      11    8   0.130000  1.825120e+01  2.479916e+01  3.216978e+01  # H1 c4c1im+
    264      11    9   0.010000  1.561684e+01  3.000444e+01  3.169022e+01  # C2 c4c1im+
    265      11    8   0.130000  1.371180e+01  2.900234e+01  3.164516e+01  # H1 c4c1im+
    266      11    8   0.130000  1.440190e+01  2.919743e+01  3.327391e+01  # H1 c4c1im+
    267      11   10  -0.120000  1.499836e+01  3.139954e+01  3.178517e+01  # CS c4c1im+
    268      11   11   0.060000  1.653477e+01  2.997379e+01  3.227722e+01  # HC c4c1im+
    269      11   11   0.060000  1.584466e+01  2.977870e+01  3.064847e+01  # HC c4c1im+
    270      11   12  -0.180000  1.598566e+01  3.243352e+01  3.124300e+01  # CT c4c1im+
    271      11   11   0.060000  1.477072e+01  3.162651e+01  3.282669e+01  # HC c4c1im+
    272      11   11   0.060000  1.408062e+01  3.143142e+01  3.119794e+01  # HC c4c1im+
    273      11   11   0.060000  1.554475e+01  3.342806e+01  3.131068e+01  # HC c4c1im+
    274      11   11   0.060000  1.621348e+01  3.220778e+01  3.020125e+01  # HC c4c1im+
    275      11   11   0.060000  1.690359e+01  3.240287e+01  3.183000e+01  # HC c4c1im+
    276      12    1   0.150000  3.175524e+01  2.662740e+01  6.197762e+01  # NA c4c1im+
    277      12    2  -0.110000  3.061636e+01  2.722943e+01  6.224172e+01  # CR c4c1im+
    278      12    1   0.150000  3.084823e+01  2.838662e+01  6.282170e+01  # NA c4c1im+
    279      12    3  -0.130000  3.221286e+01  2.853886e+01  6.293787e+01  # CW c4c1im+
    280      12    3  -0.130000  3.277813e+01  2.744248e+01  6.241182e+01  # CW c4c1im+
    281      12    4  -0.170000  3.191999e+01  2.532003e+01  6.133513e+01  # C1 c4c1im+
    282      12    5   0.210000  2.963743e+01  2.683295e+01  6.201613e+01  # HCR c4c1im+
    283      12    6  -0.170000  2.983872e+01  2.935093e+01  6.326906e+01  # C1A c4c1im+
    284      12    7   0.210000  3.272982e+01  2.938237e+01  6.337103e+01  # HCW c4c1im+
    285      12    7   0.210000  3.383603e+01  2.723680e+01  6.234158e+01  # HCW c4c1im+
    286      12    8   0.130000  3.244736e+01  2.464651e+01  6.201066e+01  # H1 c4c1im+
    287      12    8   0.130000  3.094027e+01  2.490417e+01  6.109991e+01  # H1 c4c1im+
    288      12    8   0.130000  3.249500e+01  2.543598e+01  6.041642e+01  # H1 c4c1im+
    289      12    9   0.010000  2.844285e+01  2.880932e+01  6.295915e+01  # C2 c4c1im+
    290      12    8   0.130000  2.993661e+01  2.950824e+01  6.434320e+01  # H1 c4c1im+
    291      12    8   0.130000  2.998425e+01  3.029772e+01  6.274896e+01  # H1 c4c1im+
    292      12   10  -0.120000  2.738995e+01  2.981508e+01  6.342574e+01  # CS c4c1im+
    293      12   11   0.060000  2.834371e+01  2.865225e+01  6.188509e+01  # HC c4c1im+
    294      12   11   0.060000  2.829607e+01  2.786277e+01  6.347933e+01  # HC c4c1im+
    295      12   12  -0.180000  2.599407e+01  2.927347e+01  6.311582e+01  # CT c4c1im+
    296      12   11   0.060000  2.753548e+01  3.076187e+01  6.290564e+01  # HC c4c1im+
    297      12   11   0.060000  2.748784e+01  2.997239e+01  6.449988e+01  # HC c4c1im+
    298      12   11   0.060000  2.524348e+01  2.999046e+01  6.344845e+01  # HC c4c1im+
    299      12   11   0.060000  2.584730e+01  2.832691e+01  6.363600e+01  # HC c4c1im+